Generated by Psi4
        SP                           UHF                        6-31G*
Number of atoms                            I                3
Charge                                     I                0
Multiplicity                               I                1
Number of electrons                        I               10
Number of alpha electrons                  I                5
Number of beta electrons                   I                5
Number of basis functions                  I               19
Number of independent functions            I               19
Atomic numbers                             I   N=           3
           8           1           1
Nuclear charges                            R   N=           3
  8.00000000e+00  1.00000000e+00  1.00000000e+00
Current cartesian coordinates              R   N=           9
  0.00000000e+00 -4.47275948e-05  4.02536259e-01  0.00000000e+00 -1.43046588e+00
  1.54519767e+00  0.00000000e+00  1.43051061e+00  1.54523338e+00
Integer atomic weights                     I   N=           3
          15           1           1
Real atomic weights                        R   N=           3
  1.59949146e+01  1.00782503e+00  1.00782503e+00
Number of primitive shells                 I               23
Number of contracted shells                I               10
Pure/Cartesian d shells                    I                1
Pure/Cartesian f shells                    I                1
Highest angular momentum                   I                2
Largest degree of contraction              I                6
Shell types                                I   N=          10
           0           0           1           0           1           2
           0           0           0           0
Number of primitives per shell             I   N=          10
           6           3           3           1           1           1
           3           1           3           1
Shell to atom map                          I   N=          10
           1           1           1           1           1           1
           2           2           3           3
Primitive exponents                        R   N=          23
  5.48467170e+03  8.25234950e+02  1.88046960e+02  5.29645000e+01  1.68975700e+01
  5.79963530e+00  1.55396160e+01  3.59993360e+00  1.01376180e+00  1.55396160e+01
  3.59993360e+00  1.01376180e+00  2.70005800e-01  2.70005800e-01  8.00000000e-01
  1.87311370e+01  2.82539370e+00  6.40121700e-01  1.61277800e-01  1.87311370e+01
  2.82539370e+00  6.40121700e-01  1.61277800e-01
Contraction coefficients                   R   N=          23
  1.83109981e-03  1.39500985e-02  6.84450927e-02  2.32714275e-01  4.70192950e-01
  3.58520862e-01 -1.10777504e-01 -1.48026305e-01  1.13076704e+00  7.08742995e-02
  3.39752798e-01  7.27158595e-01  1.00000000e+00  1.00000000e+00  1.00000000e+00
  3.34945995e-02  2.34726947e-01  8.13757318e-01  1.00000000e+00  3.34945995e-02
  2.34726947e-01  8.13757318e-01  1.00000000e+00
Coordinates of each shell                  R   N=          30
  0.00000000e+00 -4.47275948e-05  4.02536259e-01  0.00000000e+00 -4.47275948e-05
  4.02536259e-01  0.00000000e+00 -4.47275948e-05  4.02536259e-01  0.00000000e+00
 -4.47275948e-05  4.02536259e-01  0.00000000e+00 -4.47275948e-05  4.02536259e-01
  0.00000000e+00 -4.47275948e-05  4.02536259e-01  0.00000000e+00 -1.43046588e+00
  1.54519767e+00  0.00000000e+00 -1.43046588e+00  1.54519767e+00  0.00000000e+00
  1.43051061e+00  1.54523338e+00  0.00000000e+00  1.43051061e+00  1.54523338e+00
Total Energy                               R     -7.632562021231537e+01
Alpha Orbital Energies                     R   N=          19
 -1.92120739e+01 -1.02440916e+00 -5.28501689e-01 -3.88012114e-01 -3.04568150e-01
  8.05445475e-02  1.65607530e-01  7.89416579e-01  8.88759601e-01  9.17018457e-01
  9.17086494e-01  1.09264818e+00  1.21367654e+00  1.73483113e+00  1.75566550e+00
  1.78792212e+00  2.29620114e+00  2.59256993e+00  3.57971846e+00
Alpha MO coefficients                      R   N=         361
  9.93126229e-01  2.56123841e-02  0.00000000e+00 -3.09859710e-08  1.13822713e-03
  8.94177979e-03  0.00000000e+00 -1.56293820e-08 -9.91598463e-05 -7.13294988e-03
 -7.18729855e-03 -7.16237701e-03  0.00000000e+00  0.00000000e+00 -2.01942727e-08
  3.52744711e-04 -8.55413908e-04  3.52783040e-04 -8.55365404e-04  2.08844470e-01
 -4.68600358e-01  0.00000000e+00  1.45243889e-05 -1.24272427e-01 -4.38179611e-01
  0.00000000e+00  1.36493184e-06 -6.25782450e-02  8.36801785e-03 -2.16789408e-02
 -1.94545674e-02  0.00000000e+00  0.00000000e+00  1.56197728e-06 -1.37391887e-01
 -4.70316622e-03 -1.37367519e-01 -4.70474110e-03 -7.57003383e-06  1.41484043e-05
  0.00000000e+00  5.16093696e-01 -2.41303068e-05  3.83134695e-05  0.00000000e+00
  2.80583315e-01 -7.30412851e-06 -5.78426285e-07 -3.14224270e-07 -1.47709500e-06
  0.00000000e+00  0.00000000e+00  4.28234904e-02 -2.36172245e-01 -1.33292607e-01
  2.36167089e-01  1.33300521e-01  8.64898945e-02 -1.80477940e-01  0.00000000e+00
  1.73325981e-05  5.49564863e-01 -3.89787668e-01  0.00000000e+00  1.46070315e-05
  3.77618155e-01 -3.29003365e-03 -3.71947859e-03  5.06370803e-02  0.00000000e+00
  0.00000000e+00  7.10838203e-07  1.44273735e-01  1.06918131e-01  1.44285867e-01
  1.06936040e-01  0.00000000e+00  0.00000000e+00  6.41270559e-01  0.00000000e+00
  0.00000000e+00  0.00000000e+00  5.09590258e-01  0.00000000e+00  0.00000000e+00
  0.00000000e+00  0.00000000e+00  0.00000000e+00 -1.96753796e-06  3.62044651e-02
  0.00000000e+00  0.00000000e+00  0.00000000e+00  0.00000000e+00  0.00000000e+00
  9.99062342e-02 -1.19135000e-01  0.00000000e+00 -7.27675796e-05 -2.77472682e-01
 -1.25309489e+00  0.00000000e+00 -1.03841091e-04 -4.82185718e-01  5.61226126e-02
  4.43468033e-02  2.56015841e-02  0.00000000e+00  0.00000000e+00 -9.14459474e-07
  9.67319959e-02  9.68253403e-01  9.67816120e-02  9.68490863e-01  1.54291446e-05
 -1.21051888e-05  0.00000000e+00  4.07756171e-01 -3.05947666e-05 -2.64082926e-04
  0.00000000e+00  7.62381167e-01 -7.90674381e-05  1.24063593e-05  5.88157492e-06
  7.95988479e-06  0.00000000e+00  0.00000000e+00  1.65142316e-02  1.11290184e-01
  1.28177017e+00 -1.11292454e-01 -1.28141774e+00 -7.46929968e-06  8.42397765e-05
  0.00000000e+00  1.58220531e-01  1.38331474e-04 -2.03485731e-04  0.00000000e+00
  4.37295164e-01 -1.04540124e-04  4.76639025e-05 -3.48872372e-05  1.60496378e-05
  0.00000000e+00  0.00000000e+00 -1.99920397e-01  8.34637623e-01 -6.55777468e-01
 -8.35046124e-01  6.56204591e-01  3.77373724e-02 -1.44894376e-01  0.00000000e+00
 -1.39649683e-05 -7.04623734e-01  1.51344256e-01  0.00000000e+00  2.67046254e-04
  3.72203004e-01 -1.29801069e-01  1.54211651e-01  1.15925349e-02  0.00000000e+00
  0.00000000e+00 -6.72793123e-05  7.14712456e-01 -5.54090661e-01  7.14266891e-01
 -5.53952866e-01  7.56441658e-03 -8.59643481e-01  0.00000000e+00 -4.15725826e-05
  5.58151228e-01  1.47741898e+00  0.00000000e+00  1.45203143e-04 -8.11430464e-01
 -3.36476633e-01 -1.68988611e-01 -2.85570436e-01  0.00000000e+00  0.00000000e+00
 -1.02079579e-05  4.53061754e-01 -3.80107095e-01  4.52959229e-01 -3.80181732e-01
  0.00000000e+00  0.00000000e+00  9.61654249e-01  0.00000000e+00  0.00000000e+00
  0.00000000e+00 -1.03682890e+00  0.00000000e+00  0.00000000e+00  0.00000000e+00
  0.00000000e+00  0.00000000e+00 -7.26078567e-07 -1.76131873e-02  0.00000000e+00
  0.00000000e+00  0.00000000e+00  0.00000000e+00  0.00000000e+00  3.85705266e-06
 -6.11565580e-05  0.00000000e+00  9.94242402e-01 -1.33288699e-05  1.25534992e-04
  0.00000000e+00 -1.61465641e+00 -1.80581739e-05 -4.01218280e-05  2.53077268e-05
 -1.08449694e-05  0.00000000e+00  0.00000000e+00  1.19357154e-02  2.94370159e-02
 -9.29087451e-01 -2.92673289e-02  9.28933811e-01  8.22014903e-02  1.44022558e+00
  0.00000000e+00 -9.69983625e-06  4.15312438e-01 -3.56726942e+00  0.00000000e+00
  7.26223146e-05 -1.12479686e+00  2.37151833e-01  6.59307573e-01  3.90660516e-01
  0.00000000e+00  0.00000000e+00  6.09344042e-06  3.59860081e-01  7.66441529e-01
  3.59880755e-01  7.66215966e-01  7.47478383e-03  9.17742096e-02  0.00000000e+00
  2.98748327e-06  1.07846452e-02 -2.56130036e-01  0.00000000e+00 -2.72948767e-06
 -1.47609537e-01 -3.28561867e-01 -6.07811578e-01  1.00447055e+00  0.00000000e+00
  0.00000000e+00  2.50031915e-05  8.15343311e-02  4.35490705e-02  8.15379700e-02
  4.35379937e-02  0.00000000e+00  0.00000000e+00  2.70490806e-06  0.00000000e+00
  0.00000000e+00  0.00000000e+00  4.60524544e-06  0.00000000e+00  0.00000000e+00
  0.00000000e+00  0.00000000e+00  0.00000000e+00  9.99999993e-01 -1.18389169e-04
  0.00000000e+00  0.00000000e+00  0.00000000e+00  0.00000000e+00  0.00000000e+00
  0.00000000e+00  0.00000000e+00  6.28415626e-03  0.00000000e+00  0.00000000e+00
  0.00000000e+00  3.67410946e-02  0.00000000e+00  0.00000000e+00  0.00000000e+00
  0.00000000e+00  0.00000000e+00 -1.18543732e-04 -9.99189170e-01  0.00000000e+00
  0.00000000e+00  0.00000000e+00  0.00000000e+00  0.00000000e+00  5.23454736e-02
  5.20894587e-01  0.00000000e+00  4.03993902e-05  6.47644542e-02 -1.55725471e+00
  0.00000000e+00 -9.70804220e-05 -7.53888398e-01  1.13621130e+00 -7.18427416e-01
 -8.87469912e-02  0.00000000e+00  0.00000000e+00 -1.77653190e-04  8.20148752e-01
  1.43760755e-01  8.20365775e-01  1.43671807e-01 -1.67863094e-05 -8.35976576e-05
  0.00000000e+00  3.46537480e-02  1.70512182e-05  4.10180323e-04  0.00000000e+00
 -8.31194603e-01  2.01822303e-04 -2.23599740e-04  1.04340412e-04  4.21094238e-05
  0.00000000e+00  0.00000000e+00 -1.27169532e+00 -9.24364223e-01  5.65578965e-02
  9.23931391e-01 -5.66601721e-02  4.67936571e-01 -2.90086874e-01  0.00000000e+00
 -1.02825710e-05  1.17513867e-01 -3.68568773e+00  0.00000000e+00  1.79523844e-06
 -3.37664750e-01  1.57841660e+00  1.52479297e+00  1.54792033e+00  0.00000000e+00
  0.00000000e+00 -2.30985381e-05 -1.13557355e-01  5.52668360e-01 -1.13497338e-01
  5.52585727e-01
Total SCF Density                          R   N=         190
  2.07479244e+00 -1.76075562e-01  5.05629154e-01  0.00000000e+00  0.00000000e+00
  8.22455860e-01  1.18962629e-06 -5.26635352e-06  0.00000000e+00  5.32705408e-01
  4.54172027e-02 -8.18421567e-02  0.00000000e+00 -9.46625737e-06  6.34932942e-01
 -2.32687534e-01  5.51816438e-01  0.00000000e+00  1.33054780e-05 -3.19499572e-01
  6.88031508e-01  0.00000000e+00  0.00000000e+00  6.53570459e-01  0.00000000e+00
  0.00000000e+00  0.00000000e+00  5.19364462e-01 -1.18225611e-06  1.38710276e-06
  0.00000000e+00  2.89614561e-01  2.17461723e-06  8.91650896e-06  0.00000000e+00
  1.57453994e-01  3.89851116e-02 -7.76601972e-02  0.00000000e+00  3.73316267e-06
  4.30604615e-01 -2.39542552e-01  0.00000000e+00  6.76210044e-06  2.93023036e-01
 -1.12417201e-02 -7.02033905e-03  0.00000000e+00 -4.67571247e-07 -5.71223937e-03
 -4.89612309e-03  0.00000000e+00 -3.97642265e-07 -3.53065001e-03  2.63454037e-04
 -2.39742378e-02  2.12919188e-02  0.00000000e+00 -1.08257611e-06  1.28363813e-03
  2.17696189e-02  0.00000000e+00 -3.43949144e-07 -9.43997662e-05 -2.35811826e-04
  1.07093651e-03 -1.35930551e-02 -4.11808541e-04  0.00000000e+00 -3.33982050e-07
  6.04757481e-02 -2.25543183e-02  0.00000000e+00  5.97534005e-07  4.06792475e-02
 -5.56609977e-04  5.69778040e-04  5.98778748e-03  0.00000000e+00  0.00000000e+00
 -2.52344833e-06  0.00000000e+00  0.00000000e+00  0.00000000e+00 -2.00527635e-06
  0.00000000e+00  0.00000000e+00  0.00000000e+00  0.00000000e+00  0.00000000e+00
  7.74241123e-12  0.00000000e+00  0.00000000e+00  4.64337152e-02  0.00000000e+00
  0.00000000e+00  0.00000000e+00  3.68988855e-02  0.00000000e+00  0.00000000e+00
  0.00000000e+00  0.00000000e+00  0.00000000e+00 -1.42467319e-07  2.62152659e-03
  8.69198101e-08 -5.09733788e-07  0.00000000e+00  4.42018670e-02 -1.67365191e-06
  1.35806672e-06  0.00000000e+00  2.40311138e-02 -2.84213321e-07 -2.77884311e-08
 -9.96339963e-08 -1.15005091e-07  0.00000000e+00  0.00000000e+00  3.66770266e-03
 -3.17264159e-02  7.66987089e-02  0.00000000e+00 -2.43773004e-01  1.92735798e-01
  7.92061344e-03  0.00000000e+00 -1.32528143e-01  1.26159630e-01 -3.25348542e-03
  4.87885290e-03  1.99526456e-02  0.00000000e+00  0.00000000e+00 -2.02276638e-02
  1.90937790e-01  1.48331653e-02 -3.42325074e-02  0.00000000e+00 -1.37579379e-01
  1.18690329e-01 -7.92545864e-02  0.00000000e+00 -7.47962526e-02  8.13392033e-02
 -7.69883406e-04 -5.79060076e-04  1.10236874e-02  0.00000000e+00  0.00000000e+00
 -1.14159720e-02  9.51027349e-02  5.84425147e-02 -3.17212140e-02  7.66848592e-02
  0.00000000e+00  2.43769703e-01  1.92720281e-01  7.92599467e-03  0.00000000e+00
  1.32532930e-01  1.26158842e-01 -3.25370439e-03  4.87740870e-03  1.99515301e-02
  0.00000000e+00  0.00000000e+00  2.02267741e-02 -3.21722872e-02 -3.08135827e-02
  1.90926530e-01  1.48316654e-02 -3.42299495e-02  0.00000000e+00  1.37594687e-01
  1.18697539e-01 -7.92467384e-02  0.00000000e+00  7.48069152e-02  8.13490313e-02
 -7.70336706e-04 -5.79293252e-04  1.10247742e-02  0.00000000e+00  0.00000000e+00
  1.14169245e-02 -3.08154597e-02 -1.26234272e-02  9.51130639e-02  5.84544232e-02
Beta Orbital Energies                      R   N=          19
 -1.92120739e+01 -1.02440916e+00 -5.28501689e-01 -3.88012114e-01 -3.04568150e-01
  8.05445475e-02  1.65607530e-01  7.89416579e-01  8.88759601e-01  9.17018457e-01
  9.17086494e-01  1.09264818e+00  1.21367654e+00  1.73483113e+00  1.75566550e+00
  1.78792212e+00  2.29620114e+00  2.59256993e+00  3.57971846e+00
Beta MO coefficients                       R   N=         361
  9.93126229e-01  2.56123841e-02  0.00000000e+00 -3.09859710e-08  1.13822713e-03
  8.94177979e-03  0.00000000e+00 -1.56293820e-08 -9.91598463e-05 -7.13294988e-03
 -7.18729855e-03 -7.16237701e-03  0.00000000e+00  0.00000000e+00 -2.01942727e-08
  3.52744711e-04 -8.55413908e-04  3.52783040e-04 -8.55365404e-04  2.08844470e-01
 -4.68600358e-01  0.00000000e+00  1.45243889e-05 -1.24272427e-01 -4.38179611e-01
  0.00000000e+00  1.36493184e-06 -6.25782450e-02  8.36801785e-03 -2.16789408e-02
 -1.94545674e-02  0.00000000e+00  0.00000000e+00  1.56197728e-06 -1.37391887e-01
 -4.70316622e-03 -1.37367519e-01 -4.70474110e-03 -7.57003383e-06  1.41484043e-05
  0.00000000e+00  5.16093696e-01 -2.41303068e-05  3.83134695e-05  0.00000000e+00
  2.80583315e-01 -7.30412851e-06 -5.78426285e-07 -3.14224270e-07 -1.47709500e-06
  0.00000000e+00  0.00000000e+00  4.28234904e-02 -2.36172245e-01 -1.33292607e-01
  2.36167089e-01  1.33300521e-01  8.64898945e-02 -1.80477940e-01  0.00000000e+00
  1.73325981e-05  5.49564863e-01 -3.89787668e-01  0.00000000e+00  1.46070315e-05
  3.77618155e-01 -3.29003365e-03 -3.71947859e-03  5.06370803e-02  0.00000000e+00
  0.00000000e+00  7.10838203e-07  1.44273735e-01  1.06918131e-01  1.44285867e-01
  1.06936040e-01  0.00000000e+00  0.00000000e+00  6.41270559e-01  0.00000000e+00
  0.00000000e+00  0.00000000e+00  5.09590258e-01  0.00000000e+00  0.00000000e+00
  0.00000000e+00  0.00000000e+00  0.00000000e+00 -1.96753796e-06  3.62044651e-02
  0.00000000e+00  0.00000000e+00  0.00000000e+00  0.00000000e+00  0.00000000e+00
  9.99062342e-02 -1.19135000e-01  0.00000000e+00 -7.27675796e-05 -2.77472682e-01
 -1.25309489e+00  0.00000000e+00 -1.03841091e-04 -4.82185718e-01  5.61226126e-02
  4.43468033e-02  2.56015841e-02  0.00000000e+00  0.00000000e+00 -9.14459474e-07
  9.67319959e-02  9.68253403e-01  9.67816120e-02  9.68490863e-01  1.54291446e-05
 -1.21051888e-05  0.00000000e+00  4.07756171e-01 -3.05947666e-05 -2.64082926e-04
  0.00000000e+00  7.62381167e-01 -7.90674381e-05  1.24063593e-05  5.88157492e-06
  7.95988479e-06  0.00000000e+00  0.00000000e+00  1.65142316e-02  1.11290184e-01
  1.28177017e+00 -1.11292454e-01 -1.28141774e+00 -7.46929968e-06  8.42397765e-05
  0.00000000e+00  1.58220531e-01  1.38331474e-04 -2.03485731e-04  0.00000000e+00
  4.37295164e-01 -1.04540124e-04  4.76639025e-05 -3.48872372e-05  1.60496378e-05
  0.00000000e+00  0.00000000e+00 -1.99920397e-01  8.34637623e-01 -6.55777468e-01
 -8.35046124e-01  6.56204591e-01  3.77373724e-02 -1.44894376e-01  0.00000000e+00
 -1.39649683e-05 -7.04623734e-01  1.51344256e-01  0.00000000e+00  2.67046254e-04
  3.72203004e-01 -1.29801069e-01  1.54211651e-01  1.15925349e-02  0.00000000e+00
  0.00000000e+00 -6.72793123e-05  7.14712456e-01 -5.54090661e-01  7.14266891e-01
 -5.53952866e-01  7.56441658e-03 -8.59643481e-01  0.00000000e+00 -4.15725826e-05
  5.58151228e-01  1.47741898e+00  0.00000000e+00  1.45203143e-04 -8.11430464e-01
 -3.36476633e-01 -1.68988611e-01 -2.85570436e-01  0.00000000e+00  0.00000000e+00
 -1.02079579e-05  4.53061754e-01 -3.80107095e-01  4.52959229e-01 -3.80181732e-01
  0.00000000e+00  0.00000000e+00  9.61654249e-01  0.00000000e+00  0.00000000e+00
  0.00000000e+00 -1.03682890e+00  0.00000000e+00  0.00000000e+00  0.00000000e+00
  0.00000000e+00  0.00000000e+00 -7.26078567e-07 -1.76131873e-02  0.00000000e+00
  0.00000000e+00  0.00000000e+00  0.00000000e+00  0.00000000e+00  3.85705266e-06
 -6.11565580e-05  0.00000000e+00  9.94242402e-01 -1.33288699e-05  1.25534992e-04
  0.00000000e+00 -1.61465641e+00 -1.80581739e-05 -4.01218280e-05  2.53077268e-05
 -1.08449694e-05  0.00000000e+00  0.00000000e+00  1.19357154e-02  2.94370159e-02
 -9.29087451e-01 -2.92673289e-02  9.28933811e-01  8.22014903e-02  1.44022558e+00
  0.00000000e+00 -9.69983625e-06  4.15312438e-01 -3.56726942e+00  0.00000000e+00
  7.26223146e-05 -1.12479686e+00  2.37151833e-01  6.59307573e-01  3.90660516e-01
  0.00000000e+00  0.00000000e+00  6.09344042e-06  3.59860081e-01  7.66441529e-01
  3.59880755e-01  7.66215966e-01  7.47478383e-03  9.17742096e-02  0.00000000e+00
  2.98748327e-06  1.07846452e-02 -2.56130036e-01  0.00000000e+00 -2.72948767e-06
 -1.47609537e-01 -3.28561867e-01 -6.07811578e-01  1.00447055e+00  0.00000000e+00
  0.00000000e+00  2.50031915e-05  8.15343311e-02  4.35490705e-02  8.15379700e-02
  4.35379937e-02  0.00000000e+00  0.00000000e+00  2.70490806e-06  0.00000000e+00
  0.00000000e+00  0.00000000e+00  4.60524544e-06  0.00000000e+00  0.00000000e+00
  0.00000000e+00  0.00000000e+00  0.00000000e+00  9.99999993e-01 -1.18389169e-04
  0.00000000e+00  0.00000000e+00  0.00000000e+00  0.00000000e+00  0.00000000e+00
  0.00000000e+00  0.00000000e+00  6.28415626e-03  0.00000000e+00  0.00000000e+00
  0.00000000e+00  3.67410946e-02  0.00000000e+00  0.00000000e+00  0.00000000e+00
  0.00000000e+00  0.00000000e+00 -1.18543732e-04 -9.99189170e-01  0.00000000e+00
  0.00000000e+00  0.00000000e+00  0.00000000e+00  0.00000000e+00  5.23454736e-02
  5.20894587e-01  0.00000000e+00  4.03993902e-05  6.47644542e-02 -1.55725471e+00
  0.00000000e+00 -9.70804220e-05 -7.53888398e-01  1.13621130e+00 -7.18427416e-01
 -8.87469912e-02  0.00000000e+00  0.00000000e+00 -1.77653190e-04  8.20148752e-01
  1.43760755e-01  8.20365775e-01  1.43671807e-01 -1.67863094e-05 -8.35976576e-05
  0.00000000e+00  3.46537480e-02  1.70512182e-05  4.10180323e-04  0.00000000e+00
 -8.31194603e-01  2.01822303e-04 -2.23599740e-04  1.04340412e-04  4.21094238e-05
  0.00000000e+00  0.00000000e+00 -1.27169532e+00 -9.24364223e-01  5.65578965e-02
  9.23931391e-01 -5.66601721e-02  4.67936571e-01 -2.90086874e-01  0.00000000e+00
 -1.02825710e-05  1.17513867e-01 -3.68568773e+00  0.00000000e+00  1.79523844e-06
 -3.37664750e-01  1.57841660e+00  1.52479297e+00  1.54792033e+00  0.00000000e+00
  0.00000000e+00 -2.30985381e-05 -1.13557355e-01  5.52668360e-01 -1.13497338e-01
  5.52585727e-01
Spin SCF Density                           R   N=         190
  0.00000000e+00  0.00000000e+00  0.00000000e+00  0.00000000e+00  0.00000000e+00
  0.00000000e+00  0.00000000e+00  0.00000000e+00  0.00000000e+00  0.00000000e+00
  0.00000000e+00  0.00000000e+00  0.00000000e+00  0.00000000e+00  0.00000000e+00
  0.00000000e+00  0.00000000e+00  0.00000000e+00  0.00000000e+00  0.00000000e+00
  0.00000000e+00  0.00000000e+00  0.00000000e+00  0.00000000e+00  0.00000000e+00
  0.00000000e+00  0.00000000e+00  0.00000000e+00  0.00000000e+00  0.00000000e+00
  0.00000000e+00  0.00000000e+00  0.00000000e+00  0.00000000e+00  0.00000000e+00
  0.00000000e+00  0.00000000e+00  0.00000000e+00  0.00000000e+00  0.00000000e+00
  0.00000000e+00  0.00000000e+00  0.00000000e+00  0.00000000e+00  0.00000000e+00
  0.00000000e+00  0.00000000e+00  0.00000000e+00  0.00000000e+00  0.00000000e+00
  0.00000000e+00  0.00000000e+00  0.00000000e+00  0.00000000e+00  0.00000000e+00
  0.00000000e+00  0.00000000e+00  0.00000000e+00  0.00000000e+00  0.00000000e+00
  0.00000000e+00  0.00000000e+00  0.00000000e+00  0.00000000e+00  0.00000000e+00
  0.00000000e+00  0.00000000e+00  0.00000000e+00  0.00000000e+00  0.00000000e+00
  0.00000000e+00  0.00000000e+00  0.00000000e+00  0.00000000e+00  0.00000000e+00
  0.00000000e+00  0.00000000e+00  0.00000000e+00  0.00000000e+00  0.00000000e+00
  0.00000000e+00  0.00000000e+00  0.00000000e+00  0.00000000e+00  0.00000000e+00
  0.00000000e+00  0.00000000e+00  0.00000000e+00  0.00000000e+00  0.00000000e+00
  0.00000000e+00  0.00000000e+00  0.00000000e+00  0.00000000e+00  0.00000000e+00
  0.00000000e+00  0.00000000e+00  0.00000000e+00  0.00000000e+00  0.00000000e+00
  0.00000000e+00  0.00000000e+00  0.00000000e+00  0.00000000e+00  0.00000000e+00
  0.00000000e+00  0.00000000e+00  0.00000000e+00  0.00000000e+00  0.00000000e+00
  0.00000000e+00  0.00000000e+00  0.00000000e+00  0.00000000e+00  0.00000000e+00
  0.00000000e+00  0.00000000e+00  0.00000000e+00  0.00000000e+00  0.00000000e+00
  0.00000000e+00  0.00000000e+00  0.00000000e+00  0.00000000e+00  0.00000000e+00
  0.00000000e+00  0.00000000e+00  0.00000000e+00  0.00000000e+00  0.00000000e+00
  0.00000000e+00  0.00000000e+00  0.00000000e+00  0.00000000e+00  0.00000000e+00
  0.00000000e+00  0.00000000e+00  0.00000000e+00  0.00000000e+00  0.00000000e+00
  0.00000000e+00  0.00000000e+00  0.00000000e+00  0.00000000e+00  0.00000000e+00
  0.00000000e+00  0.00000000e+00  0.00000000e+00  0.00000000e+00  0.00000000e+00
  0.00000000e+00  0.00000000e+00  0.00000000e+00  0.00000000e+00  0.00000000e+00
  0.00000000e+00  0.00000000e+00  0.00000000e+00  0.00000000e+00  0.00000000e+00
  0.00000000e+00  0.00000000e+00  0.00000000e+00  0.00000000e+00  0.00000000e+00
  0.00000000e+00  0.00000000e+00  0.00000000e+00  0.00000000e+00  0.00000000e+00
  0.00000000e+00  0.00000000e+00  0.00000000e+00  0.00000000e+00  0.00000000e+00
  0.00000000e+00  0.00000000e+00  0.00000000e+00  0.00000000e+00  0.00000000e+00
  0.00000000e+00  0.00000000e+00  0.00000000e+00  0.00000000e+00  0.00000000e+00
  0.00000000e+00  0.00000000e+00  0.00000000e+00  0.00000000e+00  0.00000000e+00
